+ 0.5 0 1 tcp 40 ------- 1 0.0 1.0 0 0
- 0.5 0 1 tcp 40 ------- 1 0.0 1.0 0 0
r 0.510064 0 1 tcp 40 ------- 1 0.0 1.0 0 0
+ 0.510064 1 0 ack 40 ------- 1 1.0 0.0 0 1
- 0.510064 1 0 ack 40 ------- 1 1.0 0.0 0 1
r 0.520128 1 0 ack 40 ------- 1 1.0 0.0 0 1
+ 0.520128 0 1 tcp 1040 ------- 1 0.0 1.0 1 2
- 0.520128 0 1 tcp 1040 ------- 1 0.0 1.0 1 2
+ 0.520128 0 1 tcp 1040 ------- 1 0.0 1.0 2 3
- 0.521792 0 1 tcp 1040 ------- 1 0.0 1.0 2 3
r 0.531792 0 1 tcp 1040 ------- 1 0.0 1.0 1 2
+ 0.531792 1 0 ack 40 ------- 1 1.0 0.0 1 4
- 0.531792 1 0 ack 40 ------- 1 1.0 0.0 1 4
r 0.533456 0 1 tcp 1040 ------- 1 0.0 1.0 2 3
+ 0.533456 1 0 ack 40 ------- 1 1.0 0.0 2 5
- 0.533456 1 0 ack 40 ------- 1 1.0 0.0 2 5
r 0.541856 1 0 ack 40 ------- 1 1.0 0.0 1 4
+ 0.541856 0 1 tcp 1040 ------- 1 0.0 1.0 3 6
- 0.541856 0 1 tcp 1040 ------- 1 0.0 1.0 3 6
+ 0.541856 0 1 tcp 1040 ------- 1 0.0 1.0 4 7
r 0.54352 1 0 ack 40 ------- 1 1.0 0.0 2 5
+ 0.54352 0 1 tcp 1040 ------- 1 0.0 1.0 5 8
d 0.54352 0 1 tcp 1040 ------- 1 0.0 1.0 5 8
- 0.54352 0 1 tcp 1040 ------- 1 0.0 1.0 4 7
+ 0.55 0 1 tcp 1040 ------- 1 0.0 1.0 6 9
- 0.55 0 1 tcp 1040 ------- 1 0.0 1.0 6 9
r 0.55352 0 1 tcp 1040 ------- 1 0.0 1.0 3 6
+ 0.55352 1 0 ack 40 ------- 1 1.0 0.0 3 10
- 0.55352 1 0 ack 40 ------- 1 1.0 0.0 3 10
r 0.555184 0 1 tcp 1040 ------- 1 0.0 1.0 4 7
+ 0.555184 1 0 ack 40 ------- 1 1.0 0.0 4 11
- 0.555184 1 0 ack 40 ------- 1 1.0 0.0 4 11
r 0.561664 0 1 tcp 1040 ------- 1 0.0 1.0 6 9
+ 0.561664 1 0 ack 40 ------- 1 1.0 0.0 4 12
- 0.561664 1 0 ack 40 ------- 1 1.0 0.0 4 12
r 0.563584 1 0 ack 40 ------- 1 1.0 0.0 3 10
+ 0.563584 0 1 tcp 1040 ------- 1 0.0 1.0 7 13
- 0.563584 0 1 tcp 1040 ------- 1 0.0 1.0 7 13
r 0.565248 1 0 ack 40 ------- 1 1.0 0.0 4 11
+ 0.57 0 1 tcp 1040 ------- 1 0.0 1.0 8 14
- 0.57 0 1 tcp 1040 ------- 1 0.0 1.0 8 14
r 0.571728 1 0 ack 40 ------- 1 1.0 0.0 4 12
r 0.575248 0 1 tcp 1040 ------- 1 0.0 1.0 7 13
+ 0.575248 1 0 ack 40 ------- 1 1.0 0.0 4 15
- 0.575248 1 0 ack 40 ------- 1 1.0 0.0 4 15
+ 0.58 0 1 tcp 1040 ------- 1 0.0 1.0 9 16
- 0.58 0 1 tcp 1040 ------- 1 0.0 1.0 9 16
r 0.581664 0 1 tcp 1040 ------- 1 0.0 1.0 8 14
+ 0.581664 1 0 ack 40 ------- 1 1.0 0.0 4 17
- 0.581664 1 0 ack 40 ------- 1 1.0 0.0 4 17
r 0.585312 1 0 ack 40 ------- 1 1.0 0.0 4 15
+ 0.59 0 1 tcp 1040 ------- 1 0.0 1.0 10 18
- 0.59 0 1 tcp 1040 ------- 1 0.0 1.0 10 18
r 0.591664 0 1 tcp 1040 ------- 1 0.0 1.0 9 16
+ 0.591664 1 0 ack 40 ------- 1 1.0 0.0 4 19
- 0.591664 1 0 ack 40 ------- 1 1.0 0.0 4 19
r 0.591728 1 0 ack 40 ------- 1 1.0 0.0 4 17
+ 0.591728 0 1 tcp 1040 ---A--- 1 0.0 1.0 5 20
- 0.591728 0 1 tcp 1040 ---A--- 1 0.0 1.0 5 20
r 0.601664 0 1 tcp 1040 ------- 1 0.0 1.0 10 18
+ 0.601664 1 0 ack 40 ------- 1 1.0 0.0 4 21
- 0.601664 1 0 ack 40 ------- 1 1.0 0.0 4 21
r 0.601728 1 0 ack 40 ------- 1 1.0 0.0 4 19
r 0.603392 0 1 tcp 1040 ---A--- 1 0.0 1.0 5 20
+ 0.603392 1 0 ack 40 ------- 1 1.0 0.0 10 22
- 0.603392 1 0 ack 40 ------- 1 1.0 0.0 10 22
r 0.611728 1 0 ack 40 ------- 1 1.0 0.0 4 21
r 0.613456 1 0 ack 40 ------- 1 1.0 0.0 10 22
+ 0.613456 0 1 tcp 1040 ------- 1 0.0 1.0 11 23
- 0.613456 0 1 tcp 1040 ------- 1 0.0 1.0 11 23
+ 0.613456 0 1 tcp 1040 ------- 1 0.0 1.0 12 24
- 0.61512 0 1 tcp 1040 ------- 1 0.0 1.0 12 24
r 0.62512 0 1 tcp 1040 ------- 1 0.0 1.0 11 23
+ 0.62512 1 0 ack 40 ------- 1 1.0 0.0 11 25
- 0.62512 1 0 ack 40 ------- 1 1.0 0.0 11 25
r 0.626784 0 1 tcp 1040 ------- 1 0.0 1.0 12 24
+ 0.626784 1 0 ack 40 ------- 1 1.0 0.0 12 26
- 0.626784 1 0 ack 40 ------- 1 1.0 0.0 12 26
r 0.635184 1 0 ack 40 ------- 1 1.0 0.0 11 25
+ 0.635184 0 1 tcp 1040 ------- 1 0.0 1.0 13 27
- 0.635184 0 1 tcp 1040 ------- 1 0.0 1.0 13 27
+ 0.635184 0 1 tcp 1040 ------- 1 0.0 1.0 14 28
r 0.636848 1 0 ack 40 ------- 1 1.0 0.0 12 26
- 0.636848 0 1 tcp 1040 ------- 1 0.0 1.0 14 28
+ 0.64 0 1 tcp 1040 ------- 1 0.0 1.0 15 29
- 0.64 0 1 tcp 1040 ------- 1 0.0 1.0 15 29
r 0.646848 0 1 tcp 1040 ------- 1 0.0 1.0 13 27
+ 0.646848 1 0 ack 40 ------- 1 1.0 0.0 13 30
- 0.646848 1 0 ack 40 ------- 1 1.0 0.0 13 30
r 0.648512 0 1 tcp 1040 ------- 1 0.0 1.0 14 28
+ 0.648512 1 0 ack 40 ------- 1 1.0 0.0 14 31
- 0.648512 1 0 ack 40 ------- 1 1.0 0.0 14 31
r 0.651664 0 1 tcp 1040 ------- 1 0.0 1.0 15 29
+ 0.651664 1 0 ack 40 ------- 1 1.0 0.0 15 32
- 0.651664 1 0 ack 40 ------- 1 1.0 0.0 15 32
r 0.656912 1 0 ack 40 ------- 1 1.0 0.0 13 30
+ 0.656912 0 1 tcp 1040 ------- 1 0.0 1.0 16 33
- 0.656912 0 1 tcp 1040 ------- 1 0.0 1.0 16 33
r 0.658576 1 0 ack 40 ------- 1 1.0 0.0 14 31
+ 0.66 0 1 tcp 1040 ------- 1 0.0 1.0 17 34
- 0.66 0 1 tcp 1040 ------- 1 0.0 1.0 17 34
r 0.661728 1 0 ack 40 ------- 1 1.0 0.0 15 32
r 0.668576 0 1 tcp 1040 ------- 1 0.0 1.0 16 33
+ 0.668576 1 0 ack 40 ------- 1 1.0 0.0 16 35
- 0.668576 1 0 ack 40 ------- 1 1.0 0.0 16 35
+ 0.67 0 1 tcp 1040 ------- 1 0.0 1.0 18 36
- 0.67 0 1 tcp 1040 ------- 1 0.0 1.0 18 36
r 0.671664 0 1 tcp 1040 ------- 1 0.0 1.0 17 34
+ 0.671664 1 0 ack 40 ------- 1 1.0 0.0 17 37
- 0.671664 1 0 ack 40 ------- 1 1.0 0.0 17 37
r 0.67864 1 0 ack 40 ------- 1 1.0 0.0 16 35
+ 0.68 0 1 tcp 1040 ------- 1 0.0 1.0 19 38
- 0.68 0 1 tcp 1040 ------- 1 0.0 1.0 19 38
r 0.681664 0 1 tcp 1040 ------- 1 0.0 1.0 18 36
+ 0.681664 1 0 ack 40 ------- 1 1.0 0.0 18 39
- 0.681664 1 0 ack 40 ------- 1 1.0 0.0 18 39
r 0.681728 1 0 ack 40 ------- 1 1.0 0.0 17 37
+ 0.69 0 1 tcp 1040 ------- 1 0.0 1.0 20 40
- 0.69 0 1 tcp 1040 ------- 1 0.0 1.0 20 40
r 0.691664 0 1 tcp 1040 ------- 1 0.0 1.0 19 38
+ 0.691664 1 0 ack 40 ------- 1 1.0 0.0 19 41
- 0.691664 1 0 ack 40 ------- 1 1.0 0.0 19 41
r 0.691728 1 0 ack 40 ------- 1 1.0 0.0 18 39
+ 0.7 0 1 tcp 1040 ------- 1 0.0 1.0 21 42
- 0.7 0 1 tcp 1040 ------- 1 0.0 1.0 21 42
r 0.701664 0 1 tcp 1040 ------- 1 0.0 1.0 20 40
+ 0.701664 1 0 ack 40 ------- 1 1.0 0.0 20 43
- 0.701664 1 0 ack 40 ------- 1 1.0 0.0 20 43
r 0.701728 1 0 ack 40 ------- 1 1.0 0.0 19 41
+ 0.71 0 1 tcp 1040 ------- 1 0.0 1.0 22 44
- 0.71 0 1 tcp 1040 ------- 1 0.0 1.0 22 44
r 0.711664 0 1 tcp 1040 ------- 1 0.0 1.0 21 42
+ 0.711664 1 0 ack 40 ------- 1 1.0 0.0 21 45
- 0.711664 1 0 ack 40 ------- 1 1.0 0.0 21 45
r 0.711728 1 0 ack 40 ------- 1 1.0 0.0 20 43
+ 0.72 0 1 tcp 1040 ------- 1 0.0 1.0 23 46
- 0.72 0 1 tcp 1040 ------- 1 0.0 1.0 23 46
r 0.721664 0 1 tcp 1040 ------- 1 0.0 1.0 22 44
+ 0.721664 1 0 ack 40 ------- 1 1.0 0.0 22 47
- 0.721664 1 0 ack 40 ------- 1 1.0 0.0 22 47
r 0.721728 1 0 ack 40 ------- 1 1.0 0.0 21 45
+ 0.73 0 1 tcp 1040 ------- 1 0.0 1.0 24 48
- 0.73 0 1 tcp 1040 ------- 1 0.0 1.0 24 48
r 0.731664 0 1 tcp 1040 ------- 1 0.0 1.0 23 46
+ 0.731664 1 0 ack 40 ------- 1 1.0 0.0 23 49
- 0.731664 1 0 ack 40 ------- 1 1.0 0.0 23 49
r 0.731728 1 0 ack 40 ------- 1 1.0 0.0 22 47
+ 0.74 0 1 tcp 1040 ------- 1 0.0 1.0 25 50
- 0.74 0 1 tcp 1040 ------- 1 0.0 1.0 25 50
r 0.741664 0 1 tcp 1040 ------- 1 0.0 1.0 24 48
+ 0.741664 1 0 ack 40 ------- 1 1.0 0.0 24 51
- 0.741664 1 0 ack 40 ------- 1 1.0 0.0 24 51
r 0.741728 1 0 ack 40 ------- 1 1.0 0.0 23 49
+ 0.75 0 1 tcp 1040 ------- 1 0.0 1.0 26 52
- 0.75 0 1 tcp 1040 ------- 1 0.0 1.0 26 52
r 0.751664 0 1 tcp 1040 ------- 1 0.0 1.0 25 50
+ 0.751664 1 0 ack 40 ------- 1 1.0 0.0 25 53
- 0.751664 1 0 ack 40 ------- 1 1.0 0.0 25 53
r 0.751728 1 0 ack 40 ------- 1 1.0 0.0 24 51
+ 0.76 0 1 tcp 1040 ------- 1 0.0 1.0 27 54
- 0.76 0 1 tcp 1040 ------- 1 0.0 1.0 27 54
r 0.761664 0 1 tcp 1040 ------- 1 0.0 1.0 26 52
+ 0.761664 1 0 ack 40 ------- 1 1.0 0.0 26 55
- 0.761664 1 0 ack 40 ------- 1 1.0 0.0 26 55
r 0.761728 1 0 ack 40 ------- 1 1.0 0.0 25 53
+ 0.77 0 1 tcp 1040 ------- 1 0.0 1.0 28 56
- 0.77 0 1 tcp 1040 ------- 1 0.0 1.0 28 56
r 0.771664 0 1 tcp 1040 ------- 1 0.0 1.0 27 54
+ 0.771664 1 0 ack 40 ------- 1 1.0 0.0 27 57
- 0.771664 1 0 ack 40 ------- 1 1.0 0.0 27 57
r 0.771728 1 0 ack 40 ------- 1 1.0 0.0 26 55
+ 0.78 0 1 tcp 1040 ------- 1 0.0 1.0 29 58
- 0.78 0 1 tcp 1040 ------- 1 0.0 1.0 29 58
r 0.781664 0 1 tcp 1040 ------- 1 0.0 1.0 28 56
+ 0.781664 1 0 ack 40 ------- 1 1.0 0.0 28 59
- 0.781664 1 0 ack 40 ------- 1 1.0 0.0 28 59
r 0.781728 1 0 ack 40 ------- 1 1.0 0.0 27 57
+ 0.79 0 1 tcp 1040 ------- 1 0.0 1.0 30 60
- 0.79 0 1 tcp 1040 ------- 1 0.0 1.0 30 60
r 0.791664 0 1 tcp 1040 ------- 1 0.0 1.0 29 58
+ 0.791664 1 0 ack 40 ------- 1 1.0 0.0 29 61
- 0.791664 1 0 ack 40 ------- 1 1.0 0.0 29 61
r 0.791728 1 0 ack 40 ------- 1 1.0 0.0 28 59
+ 0.8 0 1 tcp 1040 ------- 1 0.0 1.0 31 62
- 0.8 0 1 tcp 1040 ------- 1 0.0 1.0 31 62
r 0.801664 0 1 tcp 1040 ------- 1 0.0 1.0 30 60
+ 0.801664 1 0 ack 40 ------- 1 1.0 0.0 30 63
- 0.801664 1 0 ack 40 ------- 1 1.0 0.0 30 63
r 0.801728 1 0 ack 40 ------- 1 1.0 0.0 29 61
+ 0.81 0 1 tcp 1040 ------- 1 0.0 1.0 32 64
- 0.81 0 1 tcp 1040 ------- 1 0.0 1.0 32 64
r 0.811664 0 1 tcp 1040 ------- 1 0.0 1.0 31 62
+ 0.811664 1 0 ack 40 ------- 1 1.0 0.0 31 65
- 0.811664 1 0 ack 40 ------- 1 1.0 0.0 31 65
r 0.811728 1 0 ack 40 ------- 1 1.0 0.0 30 63
+ 0.82 0 1 tcp 1040 ------- 1 0.0 1.0 33 66
- 0.82 0 1 tcp 1040 ------- 1 0.0 1.0 33 66
r 0.821664 0 1 tcp 1040 ------- 1 0.0 1.0 32 64
+ 0.821664 1 0 ack 40 ------- 1 1.0 0.0 32 67
- 0.821664 1 0 ack 40 ------- 1 1.0 0.0 32 67
r 0.821728 1 0 ack 40 ------- 1 1.0 0.0 31 65
+ 0.83 0 1 tcp 1040 ------- 1 0.0 1.0 34 68
- 0.83 0 1 tcp 1040 ------- 1 0.0 1.0 34 68
r 0.831664 0 1 tcp 1040 ------- 1 0.0 1.0 33 66
+ 0.831664 1 0 ack 40 ------- 1 1.0 0.0 33 69
- 0.831664 1 0 ack 40 ------- 1 1.0 0.0 33 69
r 0.831728 1 0 ack 40 ------- 1 1.0 0.0 32 67
+ 0.84 0 1 tcp 1040 ------- 1 0.0 1.0 35 70
- 0.84 0 1 tcp 1040 ------- 1 0.0 1.0 35 70
r 0.841664 0 1 tcp 1040 ------- 1 0.0 1.0 34 68
+ 0.841664 1 0 ack 40 ------- 1 1.0 0.0 34 71
- 0.841664 1 0 ack 40 ------- 1 1.0 0.0 34 71
r 0.841728 1 0 ack 40 ------- 1 1.0 0.0 33 69
+ 0.85 0 1 tcp 1040 ------- 1 0.0 1.0 36 72
- 0.85 0 1 tcp 1040 ------- 1 0.0 1.0 36 72
r 0.851664 0 1 tcp 1040 ------- 1 0.0 1.0 35 70
+ 0.851664 1 0 ack 40 ------- 1 1.0 0.0 35 73
- 0.851664 1 0 ack 40 ------- 1 1.0 0.0 35 73
r 0.851728 1 0 ack 40 ------- 1 1.0 0.0 34 71
+ 0.86 0 1 tcp 1040 ------- 1 0.0 1.0 37 74
- 0.86 0 1 tcp 1040 ------- 1 0.0 1.0 37 74
r 0.861664 0 1 tcp 1040 ------- 1 0.0 1.0 36 72
+ 0.861664 1 0 ack 40 ------- 1 1.0 0.0 36 75
- 0.861664 1 0 ack 40 ------- 1 1.0 0.0 36 75
r 0.861728 1 0 ack 40 ------- 1 1.0 0.0 35 73
+ 0.87 0 1 tcp 1040 ------- 1 0.0 1.0 38 76
- 0.87 0 1 tcp 1040 ------- 1 0.0 1.0 38 76
r 0.871664 0 1 tcp 1040 ------- 1 0.0 1.0 37 74
+ 0.871664 1 0 ack 40 ------- 1 1.0 0.0 37 77
- 0.871664 1 0 ack 40 ------- 1 1.0 0.0 37 77
r 0.871728 1 0 ack 40 ------- 1 1.0 0.0 36 75
+ 0.88 0 1 tcp 1040 ------- 1 0.0 1.0 39 78
- 0.88 0 1 tcp 1040 ------- 1 0.0 1.0 39 78
r 0.881664 0 1 tcp 1040 ------- 1 0.0 1.0 38 76
+ 0.881664 1 0 ack 40 ------- 1 1.0 0.0 38 79
- 0.881664 1 0 ack 40 ------- 1 1.0 0.0 38 79
r 0.881728 1 0 ack 40 ------- 1 1.0 0.0 37 77
+ 0.89 0 1 tcp 1040 ------- 1 0.0 1.0 40 80
- 0.89 0 1 tcp 1040 ------- 1 0.0 1.0 40 80
r 0.891664 0 1 tcp 1040 ------- 1 0.0 1.0 39 78
+ 0.891664 1 0 ack 40 ------- 1 1.0 0.0 39 81
- 0.891664 1 0 ack 40 ------- 1 1.0 0.0 39 81
r 0.891728 1 0 ack 40 ------- 1 1.0 0.0 38 79
+ 0.9 0 1 tcp 1040 ------- 1 0.0 1.0 41 82
- 0.9 0 1 tcp 1040 ------- 1 0.0 1.0 41 82
r 0.901664 0 1 tcp 1040 ------- 1 0.0 1.0 40 80
+ 0.901664 1 0 ack 40 ------- 1 1.0 0.0 40 83
- 0.901664 1 0 ack 40 ------- 1 1.0 0.0 40 83
r 0.901728 1 0 ack 40 ------- 1 1.0 0.0 39 81
+ 0.91 0 1 tcp 1040 ------- 1 0.0 1.0 42 84
- 0.91 0 1 tcp 1040 ------- 1 0.0 1.0 42 84
r 0.911664 0 1 tcp 1040 ------- 1 0.0 1.0 41 82
+ 0.911664 1 0 ack 40 ------- 1 1.0 0.0 41 85
- 0.911664 1 0 ack 40 ------- 1 1.0 0.0 41 85
r 0.911728 1 0 ack 40 ------- 1 1.0 0.0 40 83
+ 0.92 0 1 tcp 1040 ------- 1 0.0 1.0 43 86
- 0.92 0 1 tcp 1040 ------- 1 0.0 1.0 43 86
r 0.921664 0 1 tcp 1040 ------- 1 0.0 1.0 42 84
+ 0.921664 1 0 ack 40 ------- 1 1.0 0.0 42 87
- 0.921664 1 0 ack 40 ------- 1 1.0 0.0 42 87
r 0.921728 1 0 ack 40 ------- 1 1.0 0.0 41 85
+ 0.93 0 1 tcp 1040 ------- 1 0.0 1.0 44 88
- 0.93 0 1 tcp 1040 ------- 1 0.0 1.0 44 88
r 0.931664 0 1 tcp 1040 ------- 1 0.0 1.0 43 86
+ 0.931664 1 0 ack 40 ------- 1 1.0 0.0 43 89
- 0.931664 1 0 ack 40 ------- 1 1.0 0.0 43 89
r 0.931728 1 0 ack 40 ------- 1 1.0 0.0 42 87
+ 0.94 0 1 tcp 1040 ------- 1 0.0 1.0 45 90
- 0.94 0 1 tcp 1040 ------- 1 0.0 1.0 45 90
r 0.941664 0 1 tcp 1040 ------- 1 0.0 1.0 44 88
+ 0.941664 1 0 ack 40 ------- 1 1.0 0.0 44 91
- 0.941664 1 0 ack 40 ------- 1 1.0 0.0 44 91
r 0.941728 1 0 ack 40 ------- 1 1.0 0.0 43 89
+ 0.95 0 1 tcp 1040 ------- 1 0.0 1.0 46 92
- 0.95 0 1 tcp 1040 ------- 1 0.0 1.0 46 92
r 0.951664 0 1 tcp 1040 ------- 1 0.0 1.0 45 90
+ 0.951664 1 0 ack 40 ------- 1 1.0 0.0 45 93
- 0.951664 1 0 ack 40 ------- 1 1.0 0.0 45 93
r 0.951728 1 0 ack 40 ------- 1 1.0 0.0 44 91
+ 0.96 0 1 tcp 1040 ------- 1 0.0 1.0 47 94
- 0.96 0 1 tcp 1040 ------- 1 0.0 1.0 47 94
r 0.961664 0 1 tcp 1040 ------- 1 0.0 1.0 46 92
+ 0.961664 1 0 ack 40 ------- 1 1.0 0.0 46 95
- 0.961664 1 0 ack 40 ------- 1 1.0 0.0 46 95
r 0.961728 1 0 ack 40 ------- 1 1.0 0.0 45 93
+ 0.97 0 1 tcp 1040 ------- 1 0.0 1.0 48 96
- 0.97 0 1 tcp 1040 ------- 1 0.0 1.0 48 96
r 0.971664 0 1 tcp 1040 ------- 1 0.0 1.0 47 94
+ 0.971664 1 0 ack 40 ------- 1 1.0 0.0 47 97
- 0.971664 1 0 ack 40 ------- 1 1.0 0.0 47 97
r 0.971728 1 0 ack 40 ------- 1 1.0 0.0 46 95
+ 0.98 0 1 tcp 1040 ------- 1 0.0 1.0 49 98
- 0.98 0 1 tcp 1040 ------- 1 0.0 1.0 49 98
r 0.981664 0 1 tcp 1040 ------- 1 0.0 1.0 48 96
+ 0.981664 1 0 ack 40 ------- 1 1.0 0.0 48 99
- 0.981664 1 0 ack 40 ------- 1 1.0 0.0 48 99
r 0.981728 1 0 ack 40 ------- 1 1.0 0.0 47 97
+ 0.99 0 1 tcp 1040 ------- 1 0.0 1.0 50 100
- 0.99 0 1 tcp 1040 ------- 1 0.0 1.0 50 100
r 0.991664 0 1 tcp 1040 ------- 1 0.0 1.0 49 98
+ 0.991664 1 0 ack 40 ------- 1 1.0 0.0 49 101
- 0.991664 1 0 ack 40 ------- 1 1.0 0.0 49 101
r 0.991728 1 0 ack 40 ------- 1 1.0 0.0 48 99
+ 1 1 2 tcp 40 ------- 2 1.1 2.0 0 102
- 1 1 2 tcp 40 ------- 2 1.1 2.0 0 102
+ 1 0 1 tcp 1040 ------- 1 0.0 1.0 51 103
- 1 0 1 tcp 1040 ------- 1 0.0 1.0 51 103
r 1.001664 0 1 tcp 1040 ------- 1 0.0 1.0 50 100
+ 1.001664 1 0 ack 40 ------- 1 1.0 0.0 50 104
- 1.001664 1 0 ack 40 ------- 1 1.0 0.0 50 104
r 1.001728 1 0 ack 40 ------- 1 1.0 0.0 49 101
+ 1.01 0 1 tcp 1040 ------- 1 0.0 1.0 52 105
- 1.01 0 1 tcp 1040 ------- 1 0.0 1.0 52 105
r 1.01064 1 2 tcp 40 ------- 2 1.1 2.0 0 102
+ 1.01064 2 1 ack 40 ------- 2 2.0 1.1 0 106
- 1.01064 2 1 ack 40 ------- 2 2.0 1.1 0 106
r 1.011664 0 1 tcp 1040 ------- 1 0.0 1.0 51 103
+ 1.011664 1 0 ack 40 ------- 1 1.0 0.0 51 107
- 1.011664 1 0 ack 40 ------- 1 1.0 0.0 51 107
r 1.011728 1 0 ack 40 ------- 1 1.0 0.0 50 104
+ 1.02 0 1 tcp 1040 ------- 1 0.0 1.0 53 108
- 1.02 0 1 tcp 1040 ------- 1 0.0 1.0 53 108
r 1.02128 2 1 ack 40 ------- 2 2.0 1.1 0 106
+ 1.02128 1 2 tcp 1040 ------- 2 1.1 2.0 1 109
- 1.02128 1 2 tcp 1040 ------- 2 1.1 2.0 1 109
+ 1.02128 1 2 tcp 1040 ------- 2 1.1 2.0 2 110
r 1.021664 0 1 tcp 1040 ------- 1 0.0 1.0 52 105
+ 1.021664 1 0 ack 40 ------- 1 1.0 0.0 52 111
- 1.021664 1 0 ack 40 ------- 1 1.0 0.0 52 111
r 1.021728 1 0 ack 40 ------- 1 1.0 0.0 51 107
+ 1.03 0 1 tcp 1040 ------- 1 0.0 1.0 54 112
- 1.03 0 1 tcp 1040 ------- 1 0.0 1.0 54 112
r 1.031664 0 1 tcp 1040 ------- 1 0.0 1.0 53 108
+ 1.031664 1 0 ack 40 ------- 1 1.0 0.0 53 113
- 1.031664 1 0 ack 40 ------- 1 1.0 0.0 53 113
r 1.031728 1 0 ack 40 ------- 1 1.0 0.0 52 111
- 1.03792 1 2 tcp 1040 ------- 2 1.1 2.0 2 110
+ 1.04 0 1 tcp 1040 ------- 1 0.0 1.0 55 114
- 1.04 0 1 tcp 1040 ------- 1 0.0 1.0 55 114
r 1.041664 0 1 tcp 1040 ------- 1 0.0 1.0 54 112
+ 1.041664 1 0 ack 40 ------- 1 1.0 0.0 54 115
- 1.041664 1 0 ack 40 ------- 1 1.0 0.0 54 115
r 1.041728 1 0 ack 40 ------- 1 1.0 0.0 53 113
r 1.04792 1 2 tcp 1040 ------- 2 1.1 2.0 1 109
+ 1.04792 2 1 ack 40 ------- 2 2.0 1.1 1 116
- 1.04792 2 1 ack 40 ------- 2 2.0 1.1 1 116
+ 1.05 0 1 tcp 1040 ------- 1 0.0 1.0 56 117
- 1.05 0 1 tcp 1040 ------- 1 0.0 1.0 56 117
r 1.051664 0 1 tcp 1040 ------- 1 0.0 1.0 55 114
+ 1.051664 1 0 ack 40 ------- 1 1.0 0.0 55 118
- 1.051664 1 0 ack 40 ------- 1 1.0 0.0 55 118
r 1.051728 1 0 ack 40 ------- 1 1.0 0.0 54 115
r 1.05856 2 1 ack 40 ------- 2 2.0 1.1 1 116
+ 1.05856 1 2 tcp 1040 ------- 2 1.1 2.0 3 119
- 1.05856 1 2 tcp 1040 ------- 2 1.1 2.0 3 119
+ 1.05856 1 2 tcp 1040 ------- 2 1.1 2.0 4 120
+ 1.06 0 1 tcp 1040 ------- 1 0.0 1.0 57 121
- 1.06 0 1 tcp 1040 ------- 1 0.0 1.0 57 121
r 1.061664 0 1 tcp 1040 ------- 1 0.0 1.0 56 117
+ 1.061664 1 0 ack 40 ------- 1 1.0 0.0 56 122
- 1.061664 1 0 ack 40 ------- 1 1.0 0.0 56 122
r 1.061728 1 0 ack 40 ------- 1 1.0 0.0 55 118
r 1.06456 1 2 tcp 1040 ------- 2 1.1 2.0 2 110
+ 1.06456 2 1 ack 40 ------- 2 2.0 1.1 2 123
- 1.06456 2 1 ack 40 ------- 2 2.0 1.1 2 123
+ 1.07 0 1 tcp 1040 ------- 1 0.0 1.0 58 124
- 1.07 0 1 tcp 1040 ------- 1 0.0 1.0 58 124
r 1.071664 0 1 tcp 1040 ------- 1 0.0 1.0 57 121
+ 1.071664 1 0 ack 40 ------- 1 1.0 0.0 57 125
- 1.071664 1 0 ack 40 ------- 1 1.0 0.0 57 125
r 1.071728 1 0 ack 40 ------- 1 1.0 0.0 56 122
- 1.0752 1 2 tcp 1040 ------- 2 1.1 2.0 4 120
r 1.0752 2 1 ack 40 ------- 2 2.0 1.1 2 123
+ 1.0752 1 2 tcp 1040 ------- 2 1.1 2.0 5 126
+ 1.0752 1 2 tcp 1040 ------- 2 1.1 2.0 6 127
d 1.0752 1 2 tcp 1040 ------- 2 1.1 2.0 6 127
+ 1.08 0 1 tcp 1040 ------- 1 0.0 1.0 59 128
- 1.08 0 1 tcp 1040 ------- 1 0.0 1.0 59 128
r 1.081664 0 1 tcp 1040 ------- 1 0.0 1.0 58 124
+ 1.081664 1 0 ack 40 ------- 1 1.0 0.0 58 129
- 1.081664 1 0 ack 40 ------- 1 1.0 0.0 58 129
r 1.081728 1 0 ack 40 ------- 1 1.0 0.0 57 125
r 1.0852 1 2 tcp 1040 ------- 2 1.1 2.0 3 119
+ 1.0852 2 1 ack 40 ------- 2 2.0 1.1 3 130
- 1.0852 2 1 ack 40 ------- 2 2.0 1.1 3 130
+ 1.09 0 1 tcp 1040 ------- 1 0.0 1.0 60 131
- 1.09 0 1 tcp 1040 ------- 1 0.0 1.0 60 131
r 1.091664 0 1 tcp 1040 ------- 1 0.0 1.0 59 128
+ 1.091664 1 0 ack 40 ------- 1 1.0 0.0 59 132
- 1.091664 1 0 ack 40 ------- 1 1.0 0.0 59 132
r 1.091728 1 0 ack 40 ------- 1 1.0 0.0 58 129
- 1.09184 1 2 tcp 1040 ------- 2 1.1 2.0 5 126
r 1.09584 2 1 ack 40 ------- 2 2.0 1.1 3 130
+ 1.09584 1 2 tcp 1040 ------- 2 1.1 2.0 7 133
+ 1.09584 1 2 tcp 1040 ------- 2 1.1 2.0 8 134
d 1.09584 1 2 tcp 1040 ------- 2 1.1 2.0 8 134
+ 1.1 0 1 tcp 1040 ------- 1 0.0 1.0 61 135
- 1.1 0 1 tcp 1040 ------- 1 0.0 1.0 61 135
r 1.101664 0 1 tcp 1040 ------- 1 0.0 1.0 60 131
+ 1.101664 1 0 ack 40 ------- 1 1.0 0.0 60 136
- 1.101664 1 0 ack 40 ------- 1 1.0 0.0 60 136
r 1.101728 1 0 ack 40 ------- 1 1.0 0.0 59 132
r 1.10184 1 2 tcp 1040 ------- 2 1.1 2.0 4 120
+ 1.10184 2 1 ack 40 ------- 2 2.0 1.1 4 137
- 1.10184 2 1 ack 40 ------- 2 2.0 1.1 4 137
- 1.10848 1 2 tcp 1040 ------- 2 1.1 2.0 7 133
+ 1.11 0 1 tcp 1040 ------- 1 0.0 1.0 62 138
- 1.11 0 1 tcp 1040 ------- 1 0.0 1.0 62 138
r 1.111664 0 1 tcp 1040 ------- 1 0.0 1.0 61 135
+ 1.111664 1 0 ack 40 ------- 1 1.0 0.0 61 139
- 1.111664 1 0 ack 40 ------- 1 1.0 0.0 61 139
r 1.111728 1 0 ack 40 ------- 1 1.0 0.0 60 136
r 1.11248 2 1 ack 40 ------- 2 2.0 1.1 4 137
+ 1.11248 1 2 tcp 1040 ------- 2 1.1 2.0 9 140
+ 1.11248 1 2 tcp 1040 ------- 2 1.1 2.0 10 141
d 1.11248 1 2 tcp 1040 ------- 2 1.1 2.0 10 141
r 1.11848 1 2 tcp 1040 ------- 2 1.1 2.0 5 126
+ 1.11848 2 1 ack 40 ------- 2 2.0 1.1 5 142
- 1.11848 2 1 ack 40 ------- 2 2.0 1.1 5 142
+ 1.12 0 1 tcp 1040 ------- 1 0.0 1.0 63 143
- 1.12 0 1 tcp 1040 ------- 1 0.0 1.0 63 143
r 1.121664 0 1 tcp 1040 ------- 1 0.0 1.0 62 138
+ 1.121664 1 0 ack 40 ------- 1 1.0 0.0 62 144
- 1.121664 1 0 ack 40 ------- 1 1.0 0.0 62 144
r 1.121728 1 0 ack 40 ------- 1 1.0 0.0 61 139
- 1.12512 1 2 tcp 1040 ------- 2 1.1 2.0 9 140
r 1.12912 2 1 ack 40 ------- 2 2.0 1.1 5 142
+ 1.12912 1 2 tcp 1040 ------- 2 1.1 2.0 11 145
+ 1.12912 1 2 tcp 1040 ------- 2 1.1 2.0 12 146
d 1.12912 1 2 tcp 1040 ------- 2 1.1 2.0 12 146
+ 1.13 0 1 tcp 1040 ------- 1 0.0 1.0 64 147
- 1.13 0 1 tcp 1040 ------- 1 0.0 1.0 64 147
r 1.131664 0 1 tcp 1040 ------- 1 0.0 1.0 63 143
+ 1.131664 1 0 ack 40 ------- 1 1.0 0.0 63 148
- 1.131664 1 0 ack 40 ------- 1 1.0 0.0 63 148
r 1.131728 1 0 ack 40 ------- 1 1.0 0.0 62 144
r 1.13512 1 2 tcp 1040 ------- 2 1.1 2.0 7 133
+ 1.13512 2 1 ack 40 ------- 2 2.0 1.1 5 149
- 1.13512 2 1 ack 40 ------- 2 2.0 1.1 5 149
+ 1.14 0 1 tcp 1040 ------- 1 0.0 1.0 65 150
- 1.14 0 1 tcp 1040 ------- 1 0.0 1.0 65 150
r 1.141664 0 1 tcp 1040 ------- 1 0.0 1.0 64 147
+ 1.141664 1 0 ack 40 ------- 1 1.0 0.0 64 151
- 1.141664 1 0 ack 40 ------- 1 1.0 0.0 64 151
r 1.141728 1 0 ack 40 ------- 1 1.0 0.0 63 148
- 1.14176 1 2 tcp 1040 ------- 2 1.1 2.0 11 145
r 1.14576 2 1 ack 40 ------- 2 2.0 1.1 5 149
+ 1.14576 1 2 tcp 1040 ------- 2 1.1 2.0 13 152
+ 1.15 0 1 tcp 1040 ------- 1 0.0 1.0 66 153
- 1.15 0 1 tcp 1040 ------- 1 0.0 1.0 66 153
r 1.151664 0 1 tcp 1040 ------- 1 0.0 1.0 65 150
+ 1.151664 1 0 ack 40 ------- 1 1.0 0.0 65 154
- 1.151664 1 0 ack 40 ------- 1 1.0 0.0 65 154
r 1.151728 1 0 ack 40 ------- 1 1.0 0.0 64 151
r 1.15176 1 2 tcp 1040 ------- 2 1.1 2.0 9 140
+ 1.15176 2 1 ack 40 ------- 2 2.0 1.1 5 155
- 1.15176 2 1 ack 40 ------- 2 2.0 1.1 5 155
- 1.1584 1 2 tcp 1040 ------- 2 1.1 2.0 13 152
+ 1.16 0 1 tcp 1040 ------- 1 0.0 1.0 67 156
- 1.16 0 1 tcp 1040 ------- 1 0.0 1.0 67 156
r 1.161664 0 1 tcp 1040 ------- 1 0.0 1.0 66 153
+ 1.161664 1 0 ack 40 ------- 1 1.0 0.0 66 157
- 1.161664 1 0 ack 40 ------- 1 1.0 0.0 66 157
r 1.161728 1 0 ack 40 ------- 1 1.0 0.0 65 154
r 1.1624 2 1 ack 40 ------- 2 2.0 1.1 5 155
+ 1.1624 1 2 tcp 1040 ------- 2 1.1 2.0 14 158
r 1.1684 1 2 tcp 1040 ------- 2 1.1 2.0 11 145
+ 1.1684 2 1 ack 40 ------- 2 2.0 1.1 5 159
- 1.1684 2 1 ack 40 ------- 2 2.0 1.1 5 159
+ 1.17 0 1 tcp 1040 ------- 1 0.0 1.0 68 160
- 1.17 0 1 tcp 1040 ------- 1 0.0 1.0 68 160
r 1.171664 0 1 tcp 1040 ------- 1 0.0 1.0 67 156
+ 1.171664 1 0 ack 40 ------- 1 1.0 0.0 67 161
- 1.171664 1 0 ack 40 ------- 1 1.0 0.0 67 161
r 1.171728 1 0 ack 40 ------- 1 1.0 0.0 66 157
- 1.17504 1 2 tcp 1040 ------- 2 1.1 2.0 14 158
r 1.17904 2 1 ack 40 ------- 2 2.0 1.1 5 159
+ 1.17904 1 2 tcp 1040 ---A--- 2 1.1 2.0 6 162
+ 1.18 0 1 tcp 1040 ------- 1 0.0 1.0 69 163
- 1.18 0 1 tcp 1040 ------- 1 0.0 1.0 69 163
r 1.181664 0 1 tcp 1040 ------- 1 0.0 1.0 68 160
+ 1.181664 1 0 ack 40 ------- 1 1.0 0.0 68 164
- 1.181664 1 0 ack 40 ------- 1 1.0 0.0 68 164
r 1.181728 1 0 ack 40 ------- 1 1.0 0.0 67 161
r 1.18504 1 2 tcp 1040 ------- 2 1.1 2.0 13 152
+ 1.18504 2 1 ack 40 ------- 2 2.0 1.1 5 165
- 1.18504 2 1 ack 40 ------- 2 2.0 1.1 5 165
+ 1.19 0 1 tcp 1040 ------- 1 0.0 1.0 70 166
- 1.19 0 1 tcp 1040 ------- 1 0.0 1.0 70 166
r 1.191664 0 1 tcp 1040 ------- 1 0.0 1.0 69 163
+ 1.191664 1 0 ack 40 ------- 1 1.0 0.0 69 167
- 1.191664 1 0 ack 40 ------- 1 1.0 0.0 69 167
- 1.19168 1 2 tcp 1040 ---A--- 2 1.1 2.0 6 162
r 1.191728 1 0 ack 40 ------- 1 1.0 0.0 68 164
r 1.19568 2 1 ack 40 ------- 2 2.0 1.1 5 165
+ 1.2 0 1 tcp 1040 ------- 1 0.0 1.0 71 168
- 1.2 0 1 tcp 1040 ------- 1 0.0 1.0 71 168
r 1.201664 0 1 tcp 1040 ------- 1 0.0 1.0 70 166
+ 1.201664 1 0 ack 40 ------- 1 1.0 0.0 70 169
- 1.201664 1 0 ack 40 ------- 1 1.0 0.0 70 169
r 1.20168 1 2 tcp 1040 ------- 2 1.1 2.0 14 158
+ 1.20168 2 1 ack 40 ------- 2 2.0 1.1 5 170
- 1.20168 2 1 ack 40 ------- 2 2.0 1.1 5 170
r 1.201728 1 0 ack 40 ------- 1 1.0 0.0 69 167
+ 1.21 0 1 tcp 1040 ------- 1 0.0 1.0 72 171
- 1.21 0 1 tcp 1040 ------- 1 0.0 1.0 72 171
r 1.211664 0 1 tcp 1040 ------- 1 0.0 1.0 71 168
+ 1.211664 1 0 ack 40 ------- 1 1.0 0.0 71 172
- 1.211664 1 0 ack 40 ------- 1 1.0 0.0 71 172
r 1.211728 1 0 ack 40 ------- 1 1.0 0.0 70 169
r 1.21232 2 1 ack 40 ------- 2 2.0 1.1 5 170
r 1.21832 1 2 tcp 1040 ---A--- 2 1.1 2.0 6 162
+ 1.21832 2 1 ack 40 ------- 2 2.0 1.1 7 173
- 1.21832 2 1 ack 40 ------- 2 2.0 1.1 7 173
+ 1.22 0 1 tcp 1040 ------- 1 0.0 1.0 73 174
- 1.22 0 1 tcp 1040 ------- 1 0.0 1.0 73 174
r 1.221664 0 1 tcp 1040 ------- 1 0.0 1.0 72 171
+ 1.221664 1 0 ack 40 ------- 1 1.0 0.0 72 175
- 1.221664 1 0 ack 40 ------- 1 1.0 0.0 72 175
r 1.221728 1 0 ack 40 ------- 1 1.0 0.0 71 172
r 1.22896 2 1 ack 40 ------- 2 2.0 1.1 7 173
+ 1.22896 1 2 tcp 1040 ------- 2 1.1 2.0 8 176
- 1.22896 1 2 tcp 1040 ------- 2 1.1 2.0 8 176
+ 1.22896 1 2 tcp 1040 ------- 2 1.1 2.0 9 177
+ 1.23 0 1 tcp 1040 ------- 1 0.0 1.0 74 178
- 1.23 0 1 tcp 1040 ------- 1 0.0 1.0 74 178
r 1.231664 0 1 tcp 1040 ------- 1 0.0 1.0 73 174
+ 1.231664 1 0 ack 40 ------- 1 1.0 0.0 73 179
- 1.231664 1 0 ack 40 ------- 1 1.0 0.0 73 179
r 1.231728 1 0 ack 40 ------- 1 1.0 0.0 72 175
+ 1.24 0 1 tcp 1040 ------- 1 0.0 1.0 75 180
- 1.24 0 1 tcp 1040 ------- 1 0.0 1.0 75 180
r 1.241664 0 1 tcp 1040 ------- 1 0.0 1.0 74 178
+ 1.241664 1 0 ack 40 ------- 1 1.0 0.0 74 181
- 1.241664 1 0 ack 40 ------- 1 1.0 0.0 74 181
r 1.241728 1 0 ack 40 ------- 1 1.0 0.0 73 179
- 1.2456 1 2 tcp 1040 ------- 2 1.1 2.0 9 177
+ 1.25 0 1 tcp 1040 ------- 1 0.0 1.0 76 182
- 1.25 0 1 tcp 1040 ------- 1 0.0 1.0 76 182
r 1.251664 0 1 tcp 1040 ------- 1 0.0 1.0 75 180
+ 1.251664 1 0 ack 40 ------- 1 1.0 0.0 75 183
- 1.251664 1 0 ack 40 ------- 1 1.0 0.0 75 183
r 1.251728 1 0 ack 40 ------- 1 1.0 0.0 74 181
r 1.2556 1 2 tcp 1040 ------- 2 1.1 2.0 8 176
+ 1.2556 2 1 ack 40 ------- 2 2.0 1.1 9 184
- 1.2556 2 1 ack 40 ------- 2 2.0 1.1 9 184
+ 1.26 0 1 tcp 1040 ------- 1 0.0 1.0 77 185
- 1.26 0 1 tcp 1040 ------- 1 0.0 1.0 77 185
r 1.261664 0 1 tcp 1040 ------- 1 0.0 1.0 76 182
+ 1.261664 1 0 ack 40 ------- 1 1.0 0.0 76 186
- 1.261664 1 0 ack 40 ------- 1 1.0 0.0 76 186
r 1.261728 1 0 ack 40 ------- 1 1.0 0.0 75 183
r 1.26624 2 1 ack 40 ------- 2 2.0 1.1 9 184
+ 1.26624 1 2 tcp 1040 ------- 2 1.1 2.0 10 187
- 1.26624 1 2 tcp 1040 ------- 2 1.1 2.0 10 187
+ 1.26624 1 2 tcp 1040 ------- 2 1.1 2.0 11 188
+ 1.26624 1 2 tcp 1040 ------- 2 1.1 2.0 12 189
d 1.26624 1 2 tcp 1040 ------- 2 1.1 2.0 12 189
+ 1.27 0 1 tcp 1040 ------- 1 0.0 1.0 78 190
- 1.27 0 1 tcp 1040 ------- 1 0.0 1.0 78 190
r 1.271664 0 1 tcp 1040 ------- 1 0.0 1.0 77 185
+ 1.271664 1 0 ack 40 ------- 1 1.0 0.0 77 191
- 1.271664 1 0 ack 40 ------- 1 1.0 0.0 77 191
r 1.271728 1 0 ack 40 ------- 1 1.0 0.0 76 186
r 1.27224 1 2 tcp 1040 ------- 2 1.1 2.0 9 177
+ 1.27224 2 1 ack 40 ------- 2 2.0 1.1 9 192
- 1.27224 2 1 ack 40 ------- 2 2.0 1.1 9 192
+ 1.28 0 1 tcp 1040 ------- 1 0.0 1.0 79 193
- 1.28 0 1 tcp 1040 ------- 1 0.0 1.0 79 193
r 1.281664 0 1 tcp 1040 ------- 1 0.0 1.0 78 190
+ 1.281664 1 0 ack 40 ------- 1 1.0 0.0 78 194
- 1.281664 1 0 ack 40 ------- 1 1.0 0.0 78 194
r 1.281728 1 0 ack 40 ------- 1 1.0 0.0 77 191
- 1.28288 1 2 tcp 1040 ------- 2 1.1 2.0 11 188
r 1.28288 2 1 ack 40 ------- 2 2.0 1.1 9 192
+ 1.28288 1 2 tcp 1040 ------- 2 1.1 2.0 13 195
+ 1.29 0 1 tcp 1040 ------- 1 0.0 1.0 80 196
- 1.29 0 1 tcp 1040 ------- 1 0.0 1.0 80 196
r 1.291664 0 1 tcp 1040 ------- 1 0.0 1.0 79 193
+ 1.291664 1 0 ack 40 ------- 1 1.0 0.0 79 197
- 1.291664 1 0 ack 40 ------- 1 1.0 0.0 79 197
r 1.291728 1 0 ack 40 ------- 1 1.0 0.0 78 194
r 1.29288 1 2 tcp 1040 ------- 2 1.1 2.0 10 187
+ 1.29288 2 1 ack 40 ------- 2 2.0 1.1 11 198
- 1.29288 2 1 ack 40 ------- 2 2.0 1.1 11 198
- 1.29952 1 2 tcp 1040 ------- 2 1.1 2.0 13 195
+ 1.3 0 1 tcp 1040 ------- 1 0.0 1.0 81 199
- 1.3 0 1 tcp 1040 ------- 1 0.0 1.0 81 199
r 1.301664 0 1 tcp 1040 ------- 1 0.0 1.0 80 196
+ 1.301664 1 0 ack 40 ------- 1 1.0 0.0 80 200
- 1.301664 1 0 ack 40 ------- 1 1.0 0.0 80 200
r 1.301728 1 0 ack 40 ------- 1 1.0 0.0 79 197
r 1.30352 2 1 ack 40 ------- 2 2.0 1.1 11 198
+ 1.30352 1 2 tcp 1040 ------- 2 1.1 2.0 14 201
r 1.30952 1 2 tcp 1040 ------- 2 1.1 2.0 11 188
+ 1.30952 2 1 ack 40 ------- 2 2.0 1.1 11 202
- 1.30952 2 1 ack 40 ------- 2 2.0 1.1 11 202
+ 1.31 0 1 tcp 1040 ------- 1 0.0 1.0 82 203
- 1.31 0 1 tcp 1040 ------- 1 0.0 1.0 82 203
r 1.311664 0 1 tcp 1040 ------- 1 0.0 1.0 81 199
+ 1.311664 1 0 ack 40 ------- 1 1.0 0.0 81 204
- 1.311664 1 0 ack 40 ------- 1 1.0 0.0 81 204
r 1.311728 1 0 ack 40 ------- 1 1.0 0.0 80 200
- 1.31616 1 2 tcp 1040 ------- 2 1.1 2.0 14 201
+ 1.32 0 1 tcp 1040 ------- 1 0.0 1.0 83 205
- 1.32 0 1 tcp 1040 ------- 1 0.0 1.0 83 205
r 1.32016 2 1 ack 40 ------- 2 2.0 1.1 11 202
+ 1.32016 1 2 tcp 1040 ------- 2 1.1 2.0 15 206
r 1.321664 0 1 tcp 1040 ------- 1 0.0 1.0 82 203
+ 1.321664 1 0 ack 40 ------- 1 1.0 0.0 82 207
- 1.321664 1 0 ack 40 ------- 1 1.0 0.0 82 207
r 1.321728 1 0 ack 40 ------- 1 1.0 0.0 81 204
r 1.32616 1 2 tcp 1040 ------- 2 1.1 2.0 13 195
+ 1.32616 2 1 ack 40 ------- 2 2.0 1.1 11 208
- 1.32616 2 1 ack 40 ------- 2 2.0 1.1 11 208
+ 1.33 0 1 tcp 1040 ------- 1 0.0 1.0 84 209
- 1.33 0 1 tcp 1040 ------- 1 0.0 1.0 84 209
r 1.331664 0 1 tcp 1040 ------- 1 0.0 1.0 83 205
+ 1.331664 1 0 ack 40 ------- 1 1.0 0.0 83 210
- 1.331664 1 0 ack 40 ------- 1 1.0 0.0 83 210
r 1.331728 1 0 ack 40 ------- 1 1.0 0.0 82 207
- 1.3328 1 2 tcp 1040 ------- 2 1.1 2.0 15 206
r 1.3368 2 1 ack 40 ------- 2 2.0 1.1 11 208
+ 1.3368 1 2 tcp 1040 ------- 2 1.1 2.0 16 211
+ 1.34 0 1 tcp 1040 ------- 1 0.0 1.0 85 212
- 1.34 0 1 tcp 1040 ------- 1 0.0 1.0 85 212
r 1.341664 0 1 tcp 1040 ------- 1 0.0 1.0 84 209
+ 1.341664 1 0 ack 40 ------- 1 1.0 0.0 84 213
- 1.341664 1 0 ack 40 ------- 1 1.0 0.0 84 213
r 1.341728 1 0 ack 40 ------- 1 1.0 0.0 83 210
r 1.3428 1 2 tcp 1040 ------- 2 1.1 2.0 14 201
+ 1.3428 2 1 ack 40 ------- 2 2.0 1.1 11 214
- 1.3428 2 1 ack 40 ------- 2 2.0 1.1 11 214
- 1.34944 1 2 tcp 1040 ------- 2 1.1 2.0 16 211
+ 1.35 0 1 tcp 1040 ------- 1 0.0 1.0 86 215
- 1.35 0 1 tcp 1040 ------- 1 0.0 1.0 86 215
r 1.351664 0 1 tcp 1040 ------- 1 0.0 1.0 85 212
+ 1.351664 1 0 ack 40 ------- 1 1.0 0.0 85 216
- 1.351664 1 0 ack 40 ------- 1 1.0 0.0 85 216
r 1.351728 1 0 ack 40 ------- 1 1.0 0.0 84 213
r 1.35344 2 1 ack 40 ------- 2 2.0 1.1 11 214
r 1.35944 1 2 tcp 1040 ------- 2 1.1 2.0 15 206
+ 1.35944 2 1 ack 40 ------- 2 2.0 1.1 11 217
- 1.35944 2 1 ack 40 ------- 2 2.0 1.1 11 217
+ 1.36 0 1 tcp 1040 ------- 1 0.0 1.0 87 218
- 1.36 0 1 tcp 1040 ------- 1 0.0 1.0 87 218
r 1.361664 0 1 tcp 1040 ------- 1 0.0 1.0 86 215
+ 1.361664 1 0 ack 40 ------- 1 1.0 0.0 86 219
- 1.361664 1 0 ack 40 ------- 1 1.0 0.0 86 219
r 1.361728 1 0 ack 40 ------- 1 1.0 0.0 85 216
+ 1.37 0 1 tcp 1040 ------- 1 0.0 1.0 88 220